ITEM: TIMESTEP
0
ITEM: NUMBER OF ATOMS
1
ITEM: BOX BOUNDS xy xz yz pp pp pp
5.1509317718250820e+01 1.1922736280710971e+02 -2.2480556300586776e-01
5.3089558100317952e+01 1.1937795684789540e+02 -1.5685139115469910e+00
5.2978065996127228e+01 1.1924193400378044e+02 8.7514948257390660e-02
ITEM: ATOMS id type x y z
1 1 0 0 0